
   14  0.0000000e+00
   2.2518470   1.8443820  -0.0000017   2.8407710   1.6219350  -0.8898260
   2.8407750   1.6219330   0.8898190   1.9054230   3.3449120   0.0000007
   1.3230050   3.5838700   0.8898250   1.3229990   3.5838710  -0.8898190
   3.1947120   4.1631200  -0.0000030   3.6809940   4.4717280  -1.1206690
   3.6810030   4.4717230   1.1206600   4.6002130   5.0550810  -1.1739170
   3.1824480   4.1553440  -2.0368860   4.6002210   5.0550780   1.1739030
   3.1824650   4.1553360   2.0368800   1.3428471   1.2428679  -0.0000001
