%VERSION  VERSION_STAMP = V0001.000  DATE = 05/10/26  07:02:09
%FLAG TITLE
%FORMAT(20a4)
PRN 
%FLAG POINTERS
%FORMAT(10I8)
      14       5       9       4      14       4      20       3       0       0
      54       1       4       4       3       5       8       6       5       0
       0       0       0       0       0       0       0       0      14       0
       0
%FLAG ATOM_NAME
%FORMAT(20a4)
CA  HA1 HA2 CB  HB1 HB2 CG  O1  O2  H11 H12 H21 H22 HA3 
%FLAG CHARGE
%FORMAT(5E16.8)
 -9.25692840E-01 -3.15245790E-01 -3.15245790E-01  4.73779800E-02 -7.74447750E-01
 -7.74447750E-01  1.46762404E+01 -1.49204192E+01 -1.49204192E+01  0.00000000E+00
  0.00000000E+00  0.00000000E+00  0.00000000E+00  0.00000000E+00
%FLAG ATOMIC_NUMBER
%FORMAT(10I8)
       6       1       1       6       1       1       6       8       8       1
       1       1       1       1
%FLAG MASS
%FORMAT(5E16.8)
  1.20100000E+01  1.00800000E+00  1.00800000E+00  1.20100000E+01  1.00800000E+00
  1.00800000E+00  1.20100000E+01  1.60000000E+01  1.60000000E+01  1.00800000E+00
  1.00800000E+00  1.00800000E+00  1.00800000E+00  1.00800000E+00
%FLAG ATOM_TYPE_INDEX
%FORMAT(10I8)
       1       2       2       1       2       2       3       4       4       5
       5       5       5       0
%FLAG NUMBER_EXCLUDED_ATOMS
%FORMAT(10I8)
       9       5       4       9       4       3       6       5       4       1
       1       1       1       1
%FLAG NONBONDED_PARM_INDEX
%FORMAT(10I8)
       1       2       4       7      11       2       3       5       8      12
       4       5       6       9      13       7       8       9      10      14
      11      12      13      14      15
%FLAG RESIDUE_LABEL
%FORMAT(20a4)
PRN 
%FLAG RESIDUE_POINTER
%FORMAT(10I8)
       1
%FLAG BOND_FORCE_CONSTANT
%FORMAT(5E16.8)
  5.53000000E+02  4.50000000E+02  3.40000000E+02  3.17000000E+02  3.10000000E+02
%FLAG BOND_EQUIL_VALUE
%FORMAT(5E16.8)
  9.60000000E-01  1.36400000E+00  1.09000000E+00  1.52200000E+00  1.52600000E+00
%FLAG ANGLE_FORCE_CONSTANT
%FORMAT(5E16.8)
  6.00000000E+01  8.00000000E+01  5.00000000E+01  5.00000000E+01  3.50000000E+01
  8.00000000E+01  5.00000000E+01  6.30000000E+01
%FLAG ANGLE_EQUIL_VALUE
%FORMAT(5E16.8)
  2.33874220E+00  2.09439600E+00  1.97222290E+00  1.91113635E+00  1.91113635E+00
  1.91986300E+00  1.91113635E+00  1.93906163E+00
%FLAG DIHEDRAL_FORCE_CONSTANT
%FORMAT(5E16.8)
  2.30000000E+00  0.00000000E+00  1.50000000E-01  1.55555556E-01  1.00000000E+00
  1.05000000E+01
%FLAG DIHEDRAL_PERIODICITY
%FORMAT(5E16.8)
  2.00000000E+00  2.00000000E+00  3.00000000E+00  3.00000000E+00  2.00000000E+00
  2.00000000E+00
%FLAG DIHEDRAL_PHASE
%FORMAT(5E16.8)
  3.14159400E+00  0.00000000E+00  0.00000000E+00  0.00000000E+00  3.14159400E+00
  3.14159400E+00
%FLAG SCEE_SCALE_FACTOR
%FORMAT(5E16.8)
  1.20000000E+00  1.20000000E+00  1.20000000E+00  1.20000000E+00  0.00000000E+00
  0.00000000E+00
%FLAG SCNB_SCALE_FACTOR
%FORMAT(5E16.8)
  2.00000000E+00  2.00000000E+00  2.00000000E+00  2.00000000E+00  0.00000000E+00
  0.00000000E+00
%FLAG SOLTY
%FORMAT(5E16.8)
  0.00000000E+00  0.00000000E+00  0.00000000E+00  0.00000000E+00  0.00000000E+00
%FLAG LENNARD_JONES_ACOEF
%FORMAT(5E16.8)
  1.04308023E+06  9.71708117E+04  7.51607703E+03  9.24822270E+05  8.61541883E+04
  8.19971662E+05  7.91544157E+05  6.82786631E+04  7.01803794E+05  5.81803229E+05
  0.00000000E+00  0.00000000E+00  0.00000000E+00  0.00000000E+00  0.00000000E+00
%FLAG LENNARD_JONES_BCOEF
%FORMAT(5E16.8)
  6.75612247E+02  1.26919150E+02  2.17257828E+01  5.99015525E+02  1.12529845E+02
  5.31102864E+02  6.93079947E+02  1.25287818E+02  6.14502845E+02  6.99746810E+02
  0.00000000E+00  0.00000000E+00  0.00000000E+00  0.00000000E+00  0.00000000E+00
%FLAG BONDS_INC_HYDROGEN
%FORMAT(10I8)
      24      33       1      24      36       1      21      27       1      21
      30       1       9      12       3       9      15       3       0       3
       3       0       6       3       0      39       3
%FLAG BONDS_WITHOUT_HYDROGEN
%FORMAT(10I8)
      18      21       2      18      24       2       9      18       4       0
       9       5
%FLAG ANGLES_INC_HYDROGEN
%FORMAT(10I8)
      33      24      36       1      27      21      30       1      18      21
      27       3      18      21      30       3      18      24      33       3
      18      24      36       3      15       9      18       4      12       9
      15       5      12       9      18       4       6       0       9       7
       3       0       6       5       3       0       9       7       0       9
      12       7       0       9      15       7
%FLAG ANGLES_WITHOUT_HYDROGEN
%FORMAT(10I8)
      21      18      24       2       9      18      21       6       9      18
      24       6       0       9      18       8
%FLAG DIHEDRALS_INC_HYDROGEN
%FORMAT(10I8)
      24      18      21      27       1      24      18      21      30       1
      21      18      24      33       1      21      18      24      36       1
      15       9      18      21       2      15       9      18      24       2
      12       9      18      21       2      12       9      18      24       2
       9      18      21      27       1       9      18      21      30       1
       9      18      24      33       1       9      18      24      36       1
       6       0       9      12       3       6       0       9      15       3
       6       0       9      18       4       3       0       9      12       3
       3       0       9      15       3       3       0       9      18       4
      18      33     -24     -36       5      18      27     -21     -30       5
%FLAG DIHEDRALS_WITHOUT_HYDROGEN
%FORMAT(10I8)
       0       9      18      21       2       0       9      18      24       2
       9      21     -18     -24       6
%FLAG EXCLUDED_ATOMS_LIST
%FORMAT(10I8)
       2       3       4       5       6       7       8       9      14       3
       4       5       6       7       4       5       6       7       5       6
       7       8       9      10      11      12      13       6       7       8
       9       7       8       9       8       9      10      11      12      13
       9      10      11      12      13      10      11      12      13      11
       0      13       0       0
%FLAG HBOND_ACOEF
%FORMAT(5E16.8)

%FLAG HBOND_BCOEF
%FORMAT(5E16.8)

%FLAG HBCUT
%FORMAT(5E16.8)

%FLAG AMBER_ATOM_TYPE
%FORMAT(20a4)
CT  HC  HC  CT  HC  HC  C   OH  OH  HO  HO  HO  HO  HC  
%FLAG TREE_CHAIN_CLASSIFICATION
%FORMAT(20a4)
BLA BLA BLA BLA BLA BLA BLA BLA BLA BLA BLA BLA BLA BLA 
%FLAG JOIN_ARRAY
%FORMAT(10I8)
       0       0       0       0       0       0       0       0       0       0
       0       0       0       0
%FLAG IROTAT
%FORMAT(10I8)
       0       0       0       0       0       0       0       0       0       0
       0       0       0       0
%FLAG RADIUS_SET
%FORMAT(1a80)
H(N)-modified Bondi radii (mbondi2)                                             
%FLAG RADII
%FORMAT(5E16.8)
  1.70000000E+00  1.20000000E+00  1.20000000E+00  1.70000000E+00  1.20000000E+00
  1.20000000E+00  1.70000000E+00  1.50000000E+00  1.50000000E+00  1.20000000E+00
  1.20000000E+00  1.20000000E+00  1.20000000E+00  0.00000000E+00
%FLAG SCREEN
%FORMAT(5E16.8)
  7.20000000E-01  8.50000000E-01  8.50000000E-01  7.20000000E-01  8.50000000E-01
  8.50000000E-01  7.20000000E-01  8.50000000E-01  8.50000000E-01  8.50000000E-01
  8.50000000E-01  8.50000000E-01  8.50000000E-01  0.00000000E+00
%FLAG IPOL
%FORMAT(1I8)
       0
